% Model:              validation_model_high_n_particles_solved.mph
% Version:            COMSOL 5.2.0.220
% Date:               Dec 5 2017, 18:08
% Dimension:          3
% Nodes:              91
% Expressions:        6
% Description:        , , , , , 
% Length unit:        m
% x                       y                        z                        real(emw.Ex) (V/m) @ freq=5.4508E14 imag(emw.Ex) (V/m) @ freq=5.4508E14 real(emw.Ey) (V/m) @ freq=5.4508E14 imag(emw.Ey) (V/m) @ freq=5.4508E14 real(emw.Ez) (V/m) @ freq=5.4508E14 imag(emw.Ez) (V/m) @ freq=5.4508E14
-1.5E-6                   0                        7.5E-7                   4.0073670685990016E13    3.651209371548724E13     2.0503945659997484E13    -3.81681040567482E12     1.2742615929778473E14    1.3093901415701525E13
-1.4546645986921146E-6    0                        7.5E-7                   1.1236850549048037E13    5.6313370203229414E13    2.1947635244991305E13    1.2763315756204691E13    8.771752132683553E13     1.066046786582698E14
-1.451570036673298E-6     0                        7.5E-7                   1.2069892383939688E13    5.8273906774316375E13    1.9364891184043227E13    1.3547912573786281E13    7.745354363628758E13     1.1074988697484262E14
-1.4493940538051916E-6    0                        7.5E-7                   3.3515200925251685E12    5.624549719756958E13     1.691249354383534E13     1.3488889165926637E13    7.253295003157877E13     1.1347712882160522E14
-1.402474114043311E-6     0                        7.5E-7                   -3.393391031419612E13    4.823192941488808E13     4.349355254029123E12     2.3450353721352742E13    -3.031059747300086E13    1.467896374412837E14
-1.3610953546906741E-6    0                        7.5E-7                   -5.8180511431250305E13   1.881148762367224E13     -1.2411625649634402E13   2.1986892074504594E13    -1.2106277622893881E14   1.05882610790605E14
-1.3492524683955196E-6    0                        7.5E-7                   -6.171446999240043E13    8.194121787428076E12     -1.5613219773729305E13   2.0949340362401953E13    -1.4187493498426075E14   8.564740617979867E13
-1.3421087319332857E-6    0                        7.5E-7                   -5.94051997902658E13     -2.645834750471322E12    -1.8045064294667625E13   1.956188461558855E13     -1.523796271508387E14    7.143680879155305E13
-1.283236980247966E-6     0                        7.5E-7                   -3.990254927206761E13    -5.725146978494845E13    -2.790814340380821E13    5.021359732983467E11     -1.45050257160591E14     -8.208144522052378E13
-1.2681393268181528E-6    0                        7.5E-7                   -2.299001760394495E13    -7.033776550751947E13    -2.8921486468699414E13   -6.5112143012170625E12   -1.210220065887094E14    -1.1692556571078358E14
-1.2142718034565978E-6    0                        7.5E-7                   3.907186394282217E13     -7.98896733899658E13     -1.4814743786484305E13   -2.395978414449107E13    2.0549178933478023E13    -1.8648917879525322E14
-1.1993337244006697E-6    0                        7.5E-7                   5.911910038082981E13     -5.995115684616877E13    -6.175694721577928E12    -2.7833936276335402E13   6.376953953782394E13     -1.8202484291305622E14
-1.1433132454182585E-6    0                        7.5E-7                   9.117716831692022E13     -5.025023307990004E12    1.2887336255033094E13    -2.5692514320341055E13   1.909953156957653E14     -7.179892998028473E13
-1.1302520235645417E-6    0                        7.5E-7                   9.324773015997148E13     1.2930099025844283E13    2.3091014849953246E13    -2.750888948488977E13    2.0403360010837834E14    -3.10072571449105E13
-1.0745032134286581E-6    0                        7.5E-7                   5.897869174603658E13     8.876664014200639E13     3.559350700375811E13     -5.38268886388894E12     1.624679293770738E14     1.4641286332556297E14
-1.0602982304447012E-6    0                        7.5E-7                   2.0831842744733E13       9.310789528746567E13     3.848293705757169E13     9.730148453018936E11     1.2368184372380356E14    1.833539025545321E14
-1.005077891436691E-6     0                        7.5E-7                   -6.388160452820775E13    1.1143790508892217E14    2.9457455023534156E13    2.6448669560350746E13    -7.018715493309486E13    2.332008529414798E14
-9.914534783937248E-7     0                        7.5E-7                   -8.888179565863973E13    9.06373236225944E13      2.332444526411431E13     3.4531361611071062E13    -1.2032725199628619E14   2.080688949424612E14
-9.36234849710515E-7      0                        7.5E-7                   -1.4637347805371488E14   7.217250311901734E12     3.3317998127470273E12    3.722006344376993E13     -2.602480317665994E14    5.745102947935197E13
-9.226087582851744E-7     0                        7.5E-7                   -1.2936291977887156E14   -3.798230487537904E13    -4.584548806155447E12    3.671160500035284E13     -2.6614731629831906E14   2.7260768600624707E11
-8.67389035039261E-7      0                        7.5E-7                   -6.6434346716957984E13   -1.3031684697832216E14   -2.7765330561265016E13   2.8444739199234867E13    -1.7327854295492488E14   -2.1433278142562116E14
-8.537626991911654E-7     0                        7.5E-7                   -3.622315448831413E13    -1.47729553278274E14     -3.8241447398678625E13   2.309886497293033E13     -1.2778192285904303E14   -2.5446221355192244E14
-7.985429683276372E-7     0                        7.5E-7                   9.866467532049403E13     -1.6666958726777744E14   -4.4283362098828305E13   -4.957960899508186E12    1.1745348007000716E14    -3.011917566716915E14
-7.849166297434481E-7     0                        7.5E-7                   1.4553956950309134E14    -1.395145731906139E14    -4.860030821000928E13    -8.561702270193281E12    1.7769706105942222E14    -2.6089952772950647E14
-7.296968988185062E-7     0                        7.5E-7                   2.2389383514947634E14    1.832704877449535E12     -3.648628173230091E13    -2.6938094126915133E13   3.4709525669186144E14    -5.679652419896085E13
-7.160705602428114E-7     0                        7.5E-7                   2.238701083850107E14     5.534851737203696E13     -2.84646662810306E13     -3.4393028808480508E13   3.615697059198495E14     9.926484101284635E12
-6.60850829308336E-7      0                        7.5E-7                   1.5406569361968462E14    2.267395636709598E14     -1.7400979917775479E13   -4.322450452987933E13    2.6696218764477994E14    2.88108325061271E14
-6.472244906299972E-7     0                        7.5E-7                   1.1760231096023411E14    2.78507729169755E14      -3.7392271087303125E11   -3.812102296950459E13    2.0490422101033494E14    3.323799703073084E14
-5.920047599070448E-7     0                        7.5E-7                   -1.1226713883225192E14   3.3159663535599206E14    7.809020991290236E12     -4.413470129894016E13    -8.002904195323795E13    4.333925190084873E14
-5.78378343759988E-7      0                        7.5E-7                   -1.8140333706312047E14   3.1483145018284794E14    1.6647791100322082E13    -3.2704812861477848E13   -1.59289182837157E14     4.1611783071740525E14
-5.231586135090783E-7     0                        7.5E-7                   -3.963714360454775E14    1.5937936297758212E14    2.5112788309264133E13    -2.739680317305797E13    -4.0873100656816125E14   2.3089949021008344E14
-5.095318194849421E-7     0                        7.5E-7                   -4.5276352906159544E14   1.2233630966203216E14    2.4954609509980535E13    -2.148342159146875E13    -4.404532548719274E14    1.6473918494090806E14
-4.5431230956512017E-7    0                        7.5E-7                   -5.02903415000312E14     -1.6163117318751825E14   3.222823527861213E13     -1.6997860050966506E13   -4.773294295931058E14    -1.2318942144587862E14
-4.4068465165961736E-7    0                        7.5E-7                   -4.862572745354289E14    -2.3876565865625922E14   2.6919798459383406E13    -1.4855800615721621E13   -4.4377721297798275E14   -1.9320193266113656E14
-3.8546651743169536E-7    0                        7.5E-7                   -3.223911551750985E14    -4.79940003431472E14     2.5234585690811336E13    -1.0532439134062523E13   -2.5122873469548378E14   -3.797167015278149E14
-3.718376344448303E-7     0                        7.5E-7                   -2.8122291859837475E14   -5.4716319780988056E14   3.0810649664068875E13    -4.347265750234625E12    -1.899632638370605E14    -3.904744024557995E14
-3.166216607484346E-7     0                        7.5E-7                   -3.951747085469875E12    -6.037111851410626E14    2.3508878590156023E13    -1.6759351686805373E13   3.987443911996368E13     -3.918911776557904E14
-3.0299171634568486E-7    0                        7.5E-7                   6.20230168833843E13      -5.8050247963378E14      2.4328577635209746E13    -2.036379635584153E13    8.437170854070305E13     -3.71800341635224E14
-2.477763597942309E-7     0                        7.5E-7                   2.7389523152869712E14    -4.811560838429594E14    1.628708712012682E13     -2.102407922401783E13    2.1600484372372372E14    -2.1402260120238294E14
-2.3414590060416792E-7    0                        7.5E-7                   3.289492104386795E14     -4.332890502248245E14    1.621124620025368E13     -1.772394454964549E13    2.3183027763465978E14    -1.772338696421856E14
-1.789304572416849E-7     0                        7.5E-7                   4.162127784226867E14     -2.182878215434502E14    4.929298170454119E12     -2.577207516914208E13    2.4014874511183106E14    -2.3506944949705312E13
-1.6529988281188884E-7    0                        7.5E-7                   4.2924941144471644E14    -1.7422330731679516E14   -2.4268711349186387E12   -1.4557918335561832E13   2.28585410123513E14      -4.3681163616572687E11
-1.100843951064327E-7     0                        7.5E-7                   4.151242094946736E14     1.7510738542991125E13    -6.890612844959469E12    -2.99757389469145E13     1.65733728871408E14      5.596386396214978E13
-9.645381334917462E-8     0                        7.5E-7                   4.039062416353845E14     7.309470345210272E13     -2.136401857029128E13    -1.8970759839085906E13   1.4400751339114772E14    6.1141205249955625E13
-4.1238325621372706E-8    0                        7.5E-7                   3.427204746702633E14     1.948709986998382E14     -2.7570936047924137E13   -2.212694755163293E13    6.014677228352813E13     5.029552008224623E13
-2.7607743853828678E-8    0                        7.5E-7                   3.6184722853634975E14    1.9321848608833903E14    -2.8085541051240023E13   -1.6611134542367486E13   3.603234396177217E13     4.029210499402423E13
2.7607743848714293E-8     0                        7.5E-7                   3.434386083105235E14     2.096219957366037E14     -3.2013734194341844E13   -9.850249589433238E12    -1.6098282323385281E13   -2.2161607305233027E13
4.123832560883196E-8      0                        7.5E-7                   3.2738261800541406E14    2.1049753722319534E14    -3.934283165420487E13    -4.719638416407473E12    -4.311326104290937E13    -2.80359166865859E13
9.64538133599671E-8       0                        7.5E-7                   3.565345469021339E14     1.1844926180285272E14    -1.4487656789361496E13   -6.546635065116117E12    -1.1688005355435094E14   -5.229226134906919E13
1.1008439511827846E-7     0                        7.5E-7                   3.6216891068433456E14    8.61710729405234E13      -1.6020527262126629E13   1.333146157153678E11     -1.3572673325861906E14   -5.100711386883103E13
1.652998828303927E-7      0                        7.5E-7                   3.855401877007354E14     -1.1440783611940884E14   5.043834341855469E12     -1.1068574078446156E13   -1.968471713828043E14    -3.9047660721583125E12
1.7893045950380307E-7     0                        7.5E-7                   3.6601757422033506E14    -1.4207722915009362E14   6.013622838024736E12     -3.8601808067546597E12   -2.099068370848771E14    2.7903330799127363E13
2.341459157120966E-7      0                        7.5E-7                   3.040371878797004E14     -3.6518405269609775E14   2.358022002466144E13     -2.053823617413681E13    -2.04889240917342E14     1.6534600035664894E14
2.477763610277993E-7      0                        7.5E-7                   2.468807322756308E14     -3.990932514223813E14    1.712361697860685E13     -1.779982804665667E13    -1.965081105885908E14    2.0805187635722222E14
3.029916876202097E-7      0                        7.5E-7                   3.4787214231822906E13    -5.3895764244745994E14   7.281185749367836E12     -2.2316242821864594E13   -8.502367628194075E13    3.5528712662416356E14
3.1662156205280545E-7     0                        7.5E-7                   -1.3558079096953197E13   -5.438098819581254E14    7.062710046091143E12     -3.206764820642104E13    -3.281824895367339E13    3.8916367308320325E14
3.7183760331295613E-7     0                        7.5E-7                   -2.8207999960062725E14   -4.875710698593764E14    -2.8108561898231875E12   -2.8946550936996062E13   1.8787725340916856E14    4.119763052638545E14
3.854663848063618E-7      0                        7.5E-7                   -3.2869672297081875E14   -4.4952672295882525E14   -6.762007764822796E12    -3.0854864305769418E13   2.536838571247825E14     3.959925671281875E14
4.4068474433878565E-7     0                        7.5E-7                   -4.887113323060966E14    -2.1588854161078688E14   -6.521327061576644E12    -1.9722217023290777E13   4.497694986997963E14     2.2381561272575956E14
4.543123069617174E-7      0                        7.5E-7                   -4.85528503153113E14     -1.5346991535515834E14   -1.007013224234498E13    -1.6159552148031584E13   4.775093572351906E14     1.597569449198711E14
5.09531932162052E-7       0                        7.5E-7                   -4.5439191019503944E14   1.3333081720528731E14    -5.433542058505619E11    -1.3326341923340197E13   4.6983917506547744E14    -1.293884758395508E14
5.231586846963373E-7      0                        7.5E-7                   -4.0022556455895875E14   1.7592396009030406E14    -2.05233163209412E11     -1.3767370175529174E13   4.43571947221603E14      -1.9558065641600212E14
5.783783480545498E-7      0                        7.5E-7                   -1.8146513352219412E14   3.303764216101859E14     3.8796699192631406E12    -1.7919494380033844E13   2.099441560682647E14     -4.0231215474190894E14
5.920047553156934E-7      0                        7.5E-7                   -1.1549061529538581E14   3.4717344136147394E14    5.912642809811381E12     -1.1803966619146123E13   1.3626346452687248E14    -4.2338123339620406E14
6.472244895439609E-7      0                        7.5E-7                   1.2809138784796622E14    2.9837285522476425E14    -4.813087196890132E12    -2.3983947077870797E13   -1.5657757843069588E14   -3.5604572353945594E14
6.608508293310824E-7      0                        7.5E-7                   1.7666678999250984E14    2.4835997503921044E14    -1.5253231004592688E13   -2.6356095043210844E13   -2.3245627471269362E14   -3.1993964948938244E14
7.160705602080492E-7      0                        7.5E-7                   2.4796835016815347E14    5.8996303210173914E13    -2.9299060139224375E13   -2.2005210354515363E13   -3.4210133472751044E14   -6.285789663555612E13
7.296968987934242E-7      0                        7.5E-7                   2.4333278867576872E14    1.2998352350063416E13    -2.67259266275374E13     -2.2437257956825312E13   -3.391979277602766E14    4.585909746908866E12
7.849166297186231E-7      0                        7.5E-7                   1.662681968910121E14     -1.4910194789180675E14   -3.789800164788723E13    -2.464729413837197E12    -1.9748671059601478E14   2.1503878115377847E14
7.985429683030638E-7      0                        7.5E-7                   1.1768526890635562E14    -1.7770026331158872E14   -3.917149588720876E13    7.143253648070203E12     -1.4698144347705972E14   2.5995422053870022E14
8.537626991822926E-7      0                        7.5E-7                   -3.126075659524543E13    -1.6975534618806722E14   -2.9387063343334246E13   2.8509596284647688E13    8.725077239671016E13     2.4299341892556297E14
8.673890290772438E-7      0                        7.5E-7                   -6.289093380010133E13    -1.5123071332278856E14   -2.657704284928764E13    3.0607982225498465E13    1.3455600825686958E14    2.123237088634412E14
9.226087281073989E-7      0                        7.5E-7                   -1.3904397949726248E14   -5.2395503438835664E13   1.8715339306088125E12    4.309528117937369E13     2.4135986743625744E14    2.462521916503006E13
9.362348517313244E-7      0                        7.5E-7                   -1.549600732792449E14    -1.1042883316714492E13   1.6886242430346082E13    3.533908870221164E13     2.4116406526524847E14    -2.742013442979866E13
9.914535417807298E-7      0                        7.5E-7                   -1.0032859771171878E14   8.177959210411125E13     3.2752472357839492E13    2.2988434765660234E13    1.3078777520039302E14    -1.8270255860949822E14
1.0050780913863247E-6     0                        7.5E-7                   -7.982459161911298E13    9.584168871174542E13     3.668009314673934E13     2.1192504750400895E13    8.562993177751338E13     -1.9878090385430078E14
1.0602979057636376E-6     0                        7.5E-7                   1.1571133812902664E13    1.0669393273038392E14    4.009809982195872E13     -1.0859619245938734E13   -9.930123704477531E13    -1.76329523055871E14
1.0739180859076952E-6     0                        7.5E-7                   4.535600621309345E13     9.906357009815133E13     3.830425348073119E13     -1.4802731056485621E13   -1.3420875000548803E14   -1.4789245396217412E14
1.1291479303068736E-6     0                        7.5E-7                   9.546937542022022E13     3.0472678011695516E13    1.1903740133753975E13    -3.183363594406608E13    -1.9149050364397997E14   1.0878505367461559E13
1.142342837764008E-6      0                        7.5E-7                   9.492605281294662E13     8.141509273472091E12     8.196427216184195E12     -3.3524053442273457E13   -1.8580861927786634E14   4.88045418689736E13
1.1961825723112583E-6     0                        7.5E-7                   6.755426898242718E13     -5.1888262995024836E13   -2.085747331316483E13    -2.7882380285005438E13   -8.50475847252403E13     1.6297187921079984E14
1.2105857104486792E-6     0                        7.5E-7                   4.787102620998886E13     -7.805141184246253E13    -2.4085731037591023E13   -2.338358227550364E13    -4.5315768918345375E13   1.7530190014730344E14
1.2644293664732281E-6     0                        7.5E-7                   -1.5128665156220412E13   -7.298657252383306E13    -2.8772319762454535E13   2.105531211695205E12     9.510674747280516E13     1.3006357220700056E14
1.2820245847175356E-6     0                        7.5E-7                   -3.529443819275992E13    -6.3226134605990305E13   -2.848911540099125E13    7.430429501565805E12     1.2746055331223756E14    9.534311886163192E13
1.331612317426175E-6      0                        7.5E-7                   -5.96058846998697E13     -1.9377028157057297E13   -1.2069046090378938E13   2.19440961469415E13      1.5623943927048078E14    -2.779525137285553E13
1.351683686229501E-6      0                        7.5E-7                   -6.317025345420295E13    5.859382270439066E12     -3.391880939861293E12    2.4541244064609715E13    1.3826996046293381E14    -7.156213726188395E13
1.3924440178138944E-6     0                        7.5E-7                   -4.256109884476862E13    3.501983361431463E13     9.967421830888125E12     1.971218167383195E13     6.7693586440742234E13    -1.3368231633079684E14
1.4110751417680084E-6     0                        7.5E-7                   -2.7511428713662145E13   5.569741597035472E13     1.6966950899234184E13    1.9678340866534562E13    2.34114076246062E13      -1.418931338591391E14
1.4656198510672854E-6     0                        7.5E-7                   9.35563477217824E12      4.830785417038408E13     2.2284158144233785E13    -9.507589061660328E11    -9.059927456217534E13    -9.506257183284139E13
1.484446530878956E-6      0                        7.5E-7                   2.9913895924623465E13    4.473831457472361E13     2.133503209983589E13     -7.712878044598106E12    -1.1168356782239405E14   -5.921326558107808E13
1.5E-6                    0                        7.5E-7                   3.4635215291009883E13    3.530353371932224E13     1.7412410091692094E13    -1.1439085572580025E13   -1.1958151267560705E14   -2.7821258072678984E13
